# LAMMPS data file written by OVITO
28 atoms
34 bonds
1 atom types
1 bond types
0.0 2.0806954 xlo xhi
0.0 1.9413952 ylo yhi
0.0 5.0 zlo zhi
-0.4806086 0.0 0.0 xy xz yz

Masses 

1 12.0 

Atoms # full

1 1 1 0.0 -0.0400506 0.1617823 0.0
2 1 1 0.0 0.7605481 0.5316763 0.0
3 1 1 0.0 0.680447 0.8552408 0.0
4 1 1 0.0 -0.2002537 0.8089154 0.0
5 1 1 0.0 0.200115 0.3929365 0.0
6 1 1 0.0 0.1200139 0.716501 0.0
7 1 1 0.0 -0.1202905 1.6871988 0.0
8 1 1 0.0 1.2408781 0.9939802 0.0
9 1 1 0.0 0.5203825 0.3005222 0.0
10 1 1 0.0 -0.0401893 1.363634 0.0
11 1 1 0.0 0.5202438 1.502374 0.0
12 1 1 0.0 1.3209791 0.6704157 0.0
13 1 1 0.0 -0.440558 1.7796129 0.0
14 1 1 0.0 -0.2803548 1.1324799 0.0
15 1 1 0.0 0.3601794 0.9476554 0.0
16 1 1 0.0 0.4401427 1.8259387 0.0
17 1 1 0.0 0.9206104 1.0863946 0.0
18 1 1 0.0 1.0806749 1.6411133 0.0
19 1 1 0.0 1.0808136 0.4392615 0.0
20 1 1 0.0 0.2800783 1.2712197 0.0
21 1 1 0.0 1.0005738 1.964678 0.0
22 1 1 0.0 0.1198751 1.9183528 0.0
23 1 1 0.0 1.7213478 0.2544369 0.0
24 1 1 0.0 0.6803062 2.0570922 0.0
25 1 1 0.0 0.8405094 1.4099591 0.0
26 1 1 0.0 1.4810436 1.2251345 0.0
27 1 1 0.0 1.6412468 0.5780014 0.0
28 1 1 0.0 1.4009425 1.548699 0.0

Bonds

1 1 1 5
2 1 2 19
3 1 2 9
4 1 2 3
5 1 3 17
6 1 3 15
7 1 4 14
8 1 4 6
9 1 5 6
10 1 5 9
11 1 6 15
12 1 7 13
13 1 7 10
14 1 7 22
15 1 8 17
16 1 8 12
17 1 8 26
18 1 10 14
19 1 10 20
20 1 11 25
21 1 11 20
22 1 11 16
23 1 12 19
24 1 12 27
25 1 15 20
26 1 16 24
27 1 16 22
28 1 17 25
29 1 18 21
30 1 18 25
31 1 18 28
32 1 21 24
33 1 23 27
34 1 26 28
