ITEM: TIMESTEP
0
ITEM: NUMBER OF ATOMS
128
ITEM: BOX BOUNDS pp pp pp
0.0 4.0
0.0 4.618802153517006
0.0 5.0
ITEM: ATOMS id x y z
1.0 0.16666666666666666 0.0 0.0
2.0 0.3333333333333333 0.8660254037844386 0.0
3.0 0.6666666666666666 0.8660254037844386 0.0
4.0 0.8333333333333334 0.0 0.0
5.0 0.6666666666666666 1.4433756729740643 0.0
6.0 1.6666666666666665 0.8660254037844386 0.0
7.0 1.3333333333333333 0.8660254037844386 0.0
8.0 0.3333333333333333 1.4433756729740643 0.0
9.0 1.8333333333333335 0.0 0.0
10.0 0.8333333333333334 0.5773502691896257 0.0
11.0 1.8333333333333335 0.5773502691896257 0.0
12.0 0.6666666666666666 0.28867513459481287 0.0
13.0 1.1666666666666667 0.0 0.0
14.0 1.3333333333333333 1.4433756729740643 0.0
15.0 1.1666666666666667 0.5773502691896257 0.0
16.0 0.3333333333333333 0.28867513459481287 0.0
17.0 0.16666666666666666 0.5773502691896257 0.0
18.0 1.6666666666666665 1.4433756729740643 0.0
19.0 2.6666666666666665 2.02072594216369 0.0
20.0 2.1666666666666665 0.5773502691896257 0.0
21.0 1.8333333333333335 1.1547005383792515 0.0
22.0 2.6666666666666665 0.8660254037844386 0.0
23.0 0.6666666666666666 2.02072594216369 0.0
24.0 1.6666666666666665 2.02072594216369 0.0
25.0 2.8333333333333335 0.5773502691896257 0.0
26.0 0.8333333333333334 1.1547005383792515 0.0
27.0 2.8333333333333335 0.0 0.0
28.0 2.6666666666666665 1.4433756729740643 0.0
29.0 2.8333333333333335 1.1547005383792515 0.0
30.0 0.3333333333333333 2.02072594216369 0.0
31.0 2.1666666666666665 0.0 0.0
32.0 1.3333333333333333 0.28867513459481287 0.0
33.0 1.6666666666666665 0.28867513459481287 0.0
34.0 2.1666666666666665 1.1547005383792515 0.0
35.0 1.3333333333333333 2.02072594216369 0.0
36.0 2.3333333333333335 1.4433756729740643 0.0
37.0 2.3333333333333335 2.02072594216369 0.0
38.0 2.3333333333333335 0.8660254037844386 0.0
39.0 0.16666666666666666 1.1547005383792515 0.0
40.0 1.1666666666666667 1.1547005383792515 0.0
41.0 2.6666666666666665 2.598076211353316 0.0
42.0 2.8333333333333335 1.7320508075688772 0.0
43.0 3.8333333333333335 0.5773502691896257 0.0
44.0 3.6666666666666665 1.4433756729740643 0.0
45.0 3.6666666666666665 0.8660254037844386 0.0
46.0 2.1666666666666665 1.7320508075688772 0.0
47.0 1.6666666666666665 2.598076211353316 0.0
48.0 0.6666666666666666 2.598076211353316 0.0
49.0 0.3333333333333333 2.598076211353316 0.0
50.0 3.1666666666666665 1.1547005383792515 0.0
51.0 1.3333333333333333 2.598076211353316 0.0
52.0 2.3333333333333335 2.598076211353316 0.0
53.0 0.16666666666666666 1.7320508075688772 0.0
54.0 3.3333333333333335 0.8660254037844386 0.0
55.0 3.8333333333333335 1.7320508075688772 0.0
56.0 3.1666666666666665 0.0 0.0
57.0 1.1666666666666667 1.7320508075688772 0.0
58.0 3.3333333333333335 2.02072594216369 0.0
59.0 1.8333333333333335 1.7320508075688772 0.0
60.0 2.3333333333333335 0.28867513459481287 0.0
61.0 3.8333333333333335 0.0 0.0
62.0 0.8333333333333334 1.7320508075688772 0.0
63.0 3.1666666666666665 1.7320508075688772 0.0
64.0 3.8333333333333335 1.1547005383792515 0.0
65.0 3.3333333333333335 1.4433756729740643 0.0
66.0 2.6666666666666665 0.28867513459481287 0.0
67.0 3.3333333333333335 2.598076211353316 0.0
68.0 3.6666666666666665 2.598076211353316 0.0
69.0 3.6666666666666665 2.02072594216369 0.0
70.0 3.1666666666666665 0.5773502691896257 0.0
71.0 0.6666666666666666 3.1754264805429413 0.0
72.0 1.8333333333333335 2.309401076758503 0.0
73.0 0.16666666666666666 2.309401076758503 0.0
74.0 1.6666666666666665 3.1754264805429413 0.0
75.0 3.3333333333333335 0.28867513459481287 0.0
76.0 1.1666666666666667 2.309401076758503 0.0
77.0 1.3333333333333333 3.1754264805429413 0.0
78.0 3.6666666666666665 0.28867513459481287 0.0
79.0 0.8333333333333334 2.309401076758503 0.0
80.0 0.3333333333333333 3.1754264805429413 0.0
81.0 3.8333333333333335 2.309401076758503 0.0
82.0 2.3333333333333335 3.1754264805429413 0.0
83.0 2.8333333333333335 2.309401076758503 0.0
84.0 3.3333333333333335 3.1754264805429413 0.0
85.0 3.1666666666666665 2.309401076758503 0.0
86.0 2.1666666666666665 2.309401076758503 0.0
87.0 3.6666666666666665 3.1754264805429413 0.0
88.0 2.6666666666666665 3.1754264805429413 0.0
89.0 2.6666666666666665 3.7527767497325675 0.0
90.0 2.3333333333333335 3.7527767497325675 0.0
91.0 0.6666666666666666 3.7527767497325675 0.0
92.0 0.8333333333333334 2.8867513459481287 0.0
93.0 2.8333333333333335 2.8867513459481287 0.0
94.0 0.3333333333333333 3.7527767497325675 0.0
95.0 2.1666666666666665 2.8867513459481287 0.0
96.0 3.8333333333333335 2.8867513459481287 0.0
97.0 1.1666666666666667 2.8867513459481287 0.0
98.0 1.3333333333333333 3.7527767497325675 0.0
99.0 1.6666666666666665 3.7527767497325675 0.0
100.0 3.3333333333333335 3.7527767497325675 0.0
101.0 1.8333333333333335 2.8867513459481287 0.0
102.0 3.6666666666666665 3.7527767497325675 0.0
103.0 0.16666666666666666 2.8867513459481287 0.0
104.0 3.1666666666666665 2.8867513459481287 0.0
105.0 3.1666666666666665 3.4641016151377544 0.0
106.0 1.6666666666666665 4.330127018922193 0.0
107.0 1.8333333333333335 3.4641016151377544 0.0
108.0 2.1666666666666665 3.4641016151377544 0.0
109.0 2.3333333333333335 4.330127018922193 0.0
110.0 1.3333333333333333 4.330127018922193 0.0
111.0 3.8333333333333335 3.4641016151377544 0.0
112.0 2.8333333333333335 3.4641016151377544 0.0
113.0 3.3333333333333335 4.330127018922193 0.0
114.0 0.16666666666666666 3.4641016151377544 0.0
115.0 0.3333333333333333 4.330127018922193 0.0
116.0 0.6666666666666666 4.330127018922193 0.0
117.0 0.8333333333333334 3.4641016151377544 0.0
118.0 1.1666666666666667 3.4641016151377544 0.0
119.0 2.6666666666666665 4.330127018922193 0.0
120.0 3.6666666666666665 4.330127018922193 0.0
121.0 0.8333333333333334 4.04145188432738 0.0
122.0 1.1666666666666667 4.04145188432738 0.0
123.0 0.16666666666666666 4.04145188432738 0.0
124.0 2.8333333333333335 4.04145188432738 0.0
125.0 1.8333333333333335 4.04145188432738 0.0
126.0 3.1666666666666665 4.04145188432738 0.0
127.0 3.8333333333333335 4.04145188432738 0.0
128.0 2.1666666666666665 4.04145188432738 0.0
ITEM: TIMESTEP
1
ITEM: NUMBER OF ATOMS
132
ITEM: BOX BOUNDS pp pp pp
0.0 4.0
0.0 4.618802153517006
0.0 5.0
ITEM: ATOMS id x y z
1.0 0.16666666666666666 0.0 0.0
2.0 0.3333333333333333 0.8660254037844386 0.0
3.0 0.6666666666666666 0.8660254037844386 0.0
4.0 0.8333333333333334 0.0 0.0
5.0 0.6666666666666666 1.4433756729740643 0.0
6.0 1.6666666666666665 0.8660254037844386 0.0
7.0 1.3333333333333333 0.8660254037844386 0.0
8.0 0.3333333333333333 1.4433756729740643 0.0
9.0 1.8333333333333335 0.0 0.0
10.0 0.8333333333333334 0.5773502691896257 0.0
11.0 1.8333333333333335 0.5773502691896257 0.0
12.0 0.6666666666666666 0.28867513459481287 0.0
13.0 1.1666666666666667 0.0 0.0
14.0 1.3333333333333333 1.4433756729740643 0.0
15.0 1.1666666666666667 0.5773502691896257 0.0
16.0 0.3333333333333333 0.28867513459481287 0.0
17.0 0.16666666666666666 0.5773502691896257 0.0
18.0 1.6666666666666665 1.4433756729740643 0.0
19.0 2.6666666666666665 2.02072594216369 0.0
20.0 2.1666666666666665 0.5773502691896257 0.0
21.0 1.8333333333333335 1.1547005383792515 0.0
22.0 2.6666666666666665 0.8660254037844386 0.0
23.0 0.6666666666666666 2.02072594216369 0.0
24.0 1.6666666666666665 2.02072594216369 0.0
25.0 2.8333333333333335 0.5773502691896257 0.0
26.0 0.8333333333333334 1.1547005383792515 0.0
27.0 2.8333333333333335 0.0 0.0
28.0 2.6666666666666665 1.4433756729740643 0.0
29.0 2.8333333333333335 1.1547005383792515 0.0
30.0 0.3333333333333333 2.02072594216369 0.0
31.0 2.1666666666666665 0.0 0.0
32.0 1.3333333333333333 0.28867513459481287 0.0
33.0 1.6666666666666665 0.28867513459481287 0.0
34.0 2.1666666666666665 1.1547005383792515 0.0
35.0 1.3333333333333333 2.02072594216369 0.0
36.0 2.3333333333333335 1.4433756729740643 0.0
37.0 2.3333333333333335 2.02072594216369 0.0
38.0 2.3333333333333335 0.8660254037844386 0.0
39.0 0.16666666666666666 1.1547005383792515 0.0
40.0 1.1666666666666667 1.1547005383792515 0.0
41.0 2.6666666666666665 2.598076211353316 0.0
42.0 2.8333333333333335 1.7320508075688772 0.0
43.0 3.8333333333333335 0.5773502691896257 0.0
44.0 3.6666666666666665 1.4433756729740643 0.0
45.0 3.6666666666666665 0.8660254037844386 0.0
46.0 2.1666666666666665 1.7320508075688772 0.0
47.0 1.6666666666666665 2.598076211353316 0.0
48.0 0.6666666666666666 2.598076211353316 0.0
49.0 0.3333333333333333 2.598076211353316 0.0
50.0 3.1666666666666665 1.1547005383792515 0.0
51.0 1.3333333333333333 2.598076211353316 0.0
52.0 2.3333333333333335 2.598076211353316 0.0
53.0 0.16666666666666666 1.7320508075688772 0.0
54.0 3.3333333333333335 0.8660254037844386 0.0
55.0 3.8333333333333335 1.7320508075688772 0.0
56.0 3.1666666666666665 0.0 0.0
57.0 1.1666666666666667 1.7320508075688772 0.0
58.0 3.3333333333333335 2.02072594216369 0.0
59.0 1.8333333333333335 1.7320508075688772 0.0
60.0 2.3333333333333335 0.28867513459481287 0.0
61.0 3.8333333333333335 0.0 0.0
62.0 0.8333333333333334 1.7320508075688772 0.0
63.0 3.1666666666666665 1.7320508075688772 0.0
64.0 3.8333333333333335 1.1547005383792515 0.0
65.0 3.3333333333333335 1.4433756729740643 0.0
66.0 2.6666666666666665 0.28867513459481287 0.0
67.0 3.3333333333333335 2.598076211353316 0.0
68.0 3.6666666666666665 2.598076211353316 0.0
69.0 3.6666666666666665 2.02072594216369 0.0
70.0 3.1666666666666665 0.5773502691896257 0.0
71.0 0.6666666666666666 3.1754264805429413 0.0
72.0 1.8333333333333335 2.309401076758503 0.0
73.0 0.16666666666666666 2.309401076758503 0.0
74.0 1.6666666666666665 3.1754264805429413 0.0
75.0 3.3333333333333335 0.28867513459481287 0.0
76.0 1.1666666666666667 2.309401076758503 0.0
77.0 1.3333333333333333 3.1754264805429413 0.0
78.0 3.6666666666666665 0.28867513459481287 0.0
79.0 0.8333333333333334 2.309401076758503 0.0
80.0 0.3333333333333333 3.1754264805429413 0.0
81.0 3.8333333333333335 2.309401076758503 0.0
82.0 2.3333333333333335 3.1754264805429413 0.0
83.0 2.8333333333333335 2.309401076758503 0.0
84.0 3.3333333333333335 3.1754264805429413 0.0
85.0 3.1666666666666665 2.309401076758503 0.0
86.0 2.1666666666666665 2.309401076758503 0.0
87.0 3.6666666666666665 3.1754264805429413 0.0
88.0 2.6666666666666665 3.1754264805429413 0.0
89.0 2.6666666666666665 3.7527767497325675 0.0
90.0 2.3333333333333335 3.7527767497325675 0.0
91.0 0.6666666666666666 3.7527767497325675 0.0
92.0 0.8333333333333334 2.8867513459481287 0.0
93.0 2.8333333333333335 2.8867513459481287 0.0
94.0 0.3333333333333333 3.7527767497325675 0.0
95.0 2.1666666666666665 2.8867513459481287 0.0
96.0 3.8333333333333335 2.8867513459481287 0.0
97.0 1.1666666666666667 2.8867513459481287 0.0
98.0 1.3333333333333333 3.7527767497325675 0.0
99.0 1.6666666666666665 3.7527767497325675 0.0
100.0 3.3333333333333335 3.7527767497325675 0.0
101.0 1.8333333333333335 2.8867513459481287 0.0
102.0 3.6666666666666665 3.7527767497325675 0.0
103.0 0.16666666666666666 2.8867513459481287 0.0
104.0 3.1666666666666665 2.8867513459481287 0.0
105.0 3.1666666666666665 3.4641016151377544 0.0
106.0 1.6666666666666665 4.330127018922193 0.0
107.0 1.8333333333333335 3.4641016151377544 0.0
108.0 2.1666666666666665 3.4641016151377544 0.0
109.0 2.3333333333333335 4.330127018922193 0.0
110.0 1.3333333333333333 4.330127018922193 0.0
111.0 3.8333333333333335 3.4641016151377544 0.0
112.0 2.8333333333333335 3.4641016151377544 0.0
113.0 3.3333333333333335 4.330127018922193 0.0
114.0 0.16666666666666666 3.4641016151377544 0.0
115.0 0.3333333333333333 4.330127018922193 0.0
116.0 0.6666666666666666 4.330127018922193 0.0
117.0 0.8333333333333334 3.4641016151377544 0.0
118.0 1.1666666666666667 3.4641016151377544 0.0
119.0 2.6666666666666665 4.330127018922193 0.0
120.0 3.6666666666666665 4.330127018922193 0.0
121.0 0.8333333333333334 4.04145188432738 0.0
122.0 1.1666666666666667 4.04145188432738 0.0
123.0 0.16666666666666666 4.04145188432738 0.0
124.0 2.8333333333333335 4.04145188432738 0.0
125.0 1.8333333333333335 4.04145188432738 0.0
126.0 3.1666666666666665 4.04145188432738 0.0
127.0 3.8333333333333335 4.04145188432738 0.0
128.0 2.1666666666666665 4.04145188432738 0.0
129.0 2.3333333333333335 -0.2886751345948131 0.0
130.0 1.6666666666666665 -0.2886751345948131 0.0
131.0 2.6666666666666665 -0.2886751345948131 0.0
132.0 1.3333333333333333 -0.2886751345948131 0.0
ITEM: TIMESTEP
2
ITEM: NUMBER OF ATOMS
136
ITEM: BOX BOUNDS pp pp pp
0.0 4.0
0.0 4.618802153517006
0.0 5.0
ITEM: ATOMS id x y z
1.0 0.16666666666666666 0.0 0.0
2.0 0.3333333333333333 0.8660254037844386 0.0
3.0 0.6666666666666666 0.8660254037844386 0.0
4.0 0.8333333333333334 0.0 0.0
5.0 0.6666666666666666 1.4433756729740643 0.0
6.0 1.6666666666666665 0.8660254037844386 0.0
7.0 1.3333333333333333 0.8660254037844386 0.0
8.0 0.3333333333333333 1.4433756729740643 0.0
9.0 1.8333333333333335 0.0 0.0
10.0 0.8333333333333334 0.5773502691896257 0.0
11.0 1.8333333333333335 0.5773502691896257 0.0
12.0 0.6666666666666666 0.28867513459481287 0.0
13.0 1.1666666666666667 0.0 0.0
14.0 1.3333333333333333 1.4433756729740643 0.0
15.0 1.1666666666666667 0.5773502691896257 0.0
16.0 0.3333333333333333 0.28867513459481287 0.0
17.0 0.16666666666666666 0.5773502691896257 0.0
18.0 1.6666666666666665 1.4433756729740643 0.0
19.0 2.6666666666666665 2.02072594216369 0.0
20.0 2.1666666666666665 0.5773502691896257 0.0
21.0 1.8333333333333335 1.1547005383792515 0.0
22.0 2.6666666666666665 0.8660254037844386 0.0
23.0 0.6666666666666666 2.02072594216369 0.0
24.0 1.6666666666666665 2.02072594216369 0.0
25.0 2.8333333333333335 0.5773502691896257 0.0
26.0 0.8333333333333334 1.1547005383792515 0.0
27.0 2.8333333333333335 0.0 0.0
28.0 2.6666666666666665 1.4433756729740643 0.0
29.0 2.8333333333333335 1.1547005383792515 0.0
30.0 0.3333333333333333 2.02072594216369 0.0
31.0 2.1666666666666665 0.0 0.0
32.0 1.3333333333333333 0.28867513459481287 0.0
33.0 1.6666666666666665 0.28867513459481287 0.0
34.0 2.1666666666666665 1.1547005383792515 0.0
35.0 1.3333333333333333 2.02072594216369 0.0
36.0 2.3333333333333335 1.4433756729740643 0.0
37.0 2.3333333333333335 2.02072594216369 0.0
38.0 2.3333333333333335 0.8660254037844386 0.0
39.0 0.16666666666666666 1.1547005383792515 0.0
40.0 1.1666666666666667 1.1547005383792515 0.0
41.0 2.6666666666666665 2.598076211353316 0.0
42.0 2.8333333333333335 1.7320508075688772 0.0
43.0 3.8333333333333335 0.5773502691896257 0.0
44.0 3.6666666666666665 1.4433756729740643 0.0
45.0 3.6666666666666665 0.8660254037844386 0.0
46.0 2.1666666666666665 1.7320508075688772 0.0
47.0 1.6666666666666665 2.598076211353316 0.0
48.0 0.6666666666666666 2.598076211353316 0.0
49.0 0.3333333333333333 2.598076211353316 0.0
50.0 3.1666666666666665 1.1547005383792515 0.0
51.0 1.3333333333333333 2.598076211353316 0.0
52.0 2.3333333333333335 2.598076211353316 0.0
53.0 0.16666666666666666 1.7320508075688772 0.0
54.0 3.3333333333333335 0.8660254037844386 0.0
55.0 3.8333333333333335 1.7320508075688772 0.0
56.0 3.1666666666666665 0.0 0.0
57.0 1.1666666666666667 1.7320508075688772 0.0
58.0 3.3333333333333335 2.02072594216369 0.0
59.0 1.8333333333333335 1.7320508075688772 0.0
60.0 2.3333333333333335 0.28867513459481287 0.0
61.0 3.8333333333333335 0.0 0.0
62.0 0.8333333333333334 1.7320508075688772 0.0
63.0 3.1666666666666665 1.7320508075688772 0.0
64.0 3.8333333333333335 1.1547005383792515 0.0
65.0 3.3333333333333335 1.4433756729740643 0.0
66.0 2.6666666666666665 0.28867513459481287 0.0
67.0 3.3333333333333335 2.598076211353316 0.0
68.0 3.6666666666666665 2.598076211353316 0.0
69.0 3.6666666666666665 2.02072594216369 0.0
70.0 3.1666666666666665 0.5773502691896257 0.0
71.0 0.6666666666666666 3.1754264805429413 0.0
72.0 1.8333333333333335 2.309401076758503 0.0
73.0 0.16666666666666666 2.309401076758503 0.0
74.0 1.6666666666666665 3.1754264805429413 0.0
75.0 3.3333333333333335 0.28867513459481287 0.0
76.0 1.1666666666666667 2.309401076758503 0.0
77.0 1.3333333333333333 3.1754264805429413 0.0
78.0 3.6666666666666665 0.28867513459481287 0.0
79.0 0.8333333333333334 2.309401076758503 0.0
80.0 0.3333333333333333 3.1754264805429413 0.0
81.0 3.8333333333333335 2.309401076758503 0.0
82.0 2.3333333333333335 3.1754264805429413 0.0
83.0 2.8333333333333335 2.309401076758503 0.0
84.0 3.3333333333333335 3.1754264805429413 0.0
85.0 3.1666666666666665 2.309401076758503 0.0
86.0 2.1666666666666665 2.309401076758503 0.0
87.0 3.6666666666666665 3.1754264805429413 0.0
88.0 2.6666666666666665 3.1754264805429413 0.0
89.0 2.6666666666666665 3.7527767497325675 0.0
90.0 2.3333333333333335 3.7527767497325675 0.0
91.0 0.6666666666666666 3.7527767497325675 0.0
92.0 0.8333333333333334 2.8867513459481287 0.0
93.0 2.8333333333333335 2.8867513459481287 0.0
94.0 0.3333333333333333 3.7527767497325675 0.0
95.0 2.1666666666666665 2.8867513459481287 0.0
96.0 3.8333333333333335 2.8867513459481287 0.0
97.0 1.1666666666666667 2.8867513459481287 0.0
98.0 1.3333333333333333 3.7527767497325675 0.0
99.0 1.6666666666666665 3.7527767497325675 0.0
100.0 3.3333333333333335 3.7527767497325675 0.0
101.0 1.8333333333333335 2.8867513459481287 0.0
102.0 3.6666666666666665 3.7527767497325675 0.0
103.0 0.16666666666666666 2.8867513459481287 0.0
104.0 3.1666666666666665 2.8867513459481287 0.0
105.0 3.1666666666666665 3.4641016151377544 0.0
106.0 1.6666666666666665 4.330127018922193 0.0
107.0 1.8333333333333335 3.4641016151377544 0.0
108.0 2.1666666666666665 3.4641016151377544 0.0
109.0 2.3333333333333335 4.330127018922193 0.0
110.0 1.3333333333333333 4.330127018922193 0.0
111.0 3.8333333333333335 3.4641016151377544 0.0
112.0 2.8333333333333335 3.4641016151377544 0.0
113.0 3.3333333333333335 4.330127018922193 0.0
114.0 0.16666666666666666 3.4641016151377544 0.0
115.0 0.3333333333333333 4.330127018922193 0.0
116.0 0.6666666666666666 4.330127018922193 0.0
117.0 0.8333333333333334 3.4641016151377544 0.0
118.0 1.1666666666666667 3.4641016151377544 0.0
119.0 2.6666666666666665 4.330127018922193 0.0
120.0 3.6666666666666665 4.330127018922193 0.0
121.0 0.8333333333333334 4.04145188432738 0.0
122.0 1.1666666666666667 4.04145188432738 0.0
123.0 0.16666666666666666 4.04145188432738 0.0
124.0 2.8333333333333335 4.04145188432738 0.0
125.0 1.8333333333333335 4.04145188432738 0.0
126.0 3.1666666666666665 4.04145188432738 0.0
127.0 3.8333333333333335 4.04145188432738 0.0
128.0 2.1666666666666665 4.04145188432738 0.0
129.0 2.3333333333333335 -0.2886751345948131 0.0
130.0 1.6666666666666665 -0.2886751345948131 0.0
131.0 2.6666666666666665 -0.2886751345948131 0.0
132.0 1.3333333333333333 -0.2886751345948131 0.0
133.0 0.3333333333333333 -0.2886751345948131 0.0
134.0 3.6666666666666665 -0.2886751345948131 0.0
135.0 0.6666666666666666 -0.2886751345948131 0.0
136.0 3.3333333333333335 -0.2886751345948131 0.0
ITEM: TIMESTEP
3
ITEM: NUMBER OF ATOMS
124
ITEM: BOX BOUNDS pp pp pp
0.0 4.0
0.0 4.618802153517006
0.0 5.0
ITEM: ATOMS id x y z
1.0 0.3333333333333333 0.8660254037844386 0.0
2.0 0.6666666666666666 0.8660254037844386 0.0
3.0 0.6666666666666666 1.4433756729740643 0.0
4.0 1.6666666666666665 0.8660254037844386 0.0
5.0 1.3333333333333333 0.8660254037844386 0.0
6.0 0.3333333333333333 1.4433756729740643 0.0
7.0 1.8333333333333335 0.0 0.0
8.0 0.8333333333333334 0.5773502691896257 0.0
9.0 1.8333333333333335 0.5773502691896257 0.0
10.0 1.1666666666666667 0.0 0.0
11.0 1.3333333333333333 1.4433756729740643 0.0
12.0 1.1666666666666667 0.5773502691896257 0.0
13.0 0.16666666666666666 0.5773502691896257 0.0
14.0 1.6666666666666665 1.4433756729740643 0.0
15.0 2.6666666666666665 2.02072594216369 0.0
16.0 2.1666666666666665 0.5773502691896257 0.0
17.0 1.8333333333333335 1.1547005383792515 0.0
18.0 2.6666666666666665 0.8660254037844386 0.0
19.0 0.6666666666666666 2.02072594216369 0.0
20.0 1.6666666666666665 2.02072594216369 0.0
21.0 2.8333333333333335 0.5773502691896257 0.0
22.0 0.8333333333333334 1.1547005383792515 0.0
23.0 2.8333333333333335 0.0 0.0
24.0 2.6666666666666665 1.4433756729740643 0.0
25.0 2.8333333333333335 1.1547005383792515 0.0
26.0 0.3333333333333333 2.02072594216369 0.0
27.0 2.1666666666666665 0.0 0.0
28.0 1.3333333333333333 0.28867513459481287 0.0
29.0 1.6666666666666665 0.28867513459481287 0.0
30.0 2.1666666666666665 1.1547005383792515 0.0
31.0 1.3333333333333333 2.02072594216369 0.0
32.0 2.3333333333333335 1.4433756729740643 0.0
33.0 2.3333333333333335 2.02072594216369 0.0
34.0 2.3333333333333335 0.8660254037844386 0.0
35.0 0.16666666666666666 1.1547005383792515 0.0
36.0 1.1666666666666667 1.1547005383792515 0.0
37.0 2.6666666666666665 2.598076211353316 0.0
38.0 2.8333333333333335 1.7320508075688772 0.0
39.0 3.8333333333333335 0.5773502691896257 0.0
40.0 3.6666666666666665 1.4433756729740643 0.0
41.0 3.6666666666666665 0.8660254037844386 0.0
42.0 2.1666666666666665 1.7320508075688772 0.0
43.0 1.6666666666666665 2.598076211353316 0.0
44.0 0.6666666666666666 2.598076211353316 0.0
45.0 0.3333333333333333 2.598076211353316 0.0
46.0 3.1666666666666665 1.1547005383792515 0.0
47.0 1.3333333333333333 2.598076211353316 0.0
48.0 2.3333333333333335 2.598076211353316 0.0
49.0 0.16666666666666666 1.7320508075688772 0.0
50.0 3.3333333333333335 0.8660254037844386 0.0
51.0 3.8333333333333335 1.7320508075688772 0.0
52.0 1.1666666666666667 1.7320508075688772 0.0
53.0 3.3333333333333335 2.02072594216369 0.0
54.0 1.8333333333333335 1.7320508075688772 0.0
55.0 2.3333333333333335 0.28867513459481287 0.0
56.0 0.8333333333333334 1.7320508075688772 0.0
57.0 3.1666666666666665 1.7320508075688772 0.0
58.0 3.8333333333333335 1.1547005383792515 0.0
59.0 3.3333333333333335 1.4433756729740643 0.0
60.0 2.6666666666666665 0.28867513459481287 0.0
61.0 3.3333333333333335 2.598076211353316 0.0
62.0 3.6666666666666665 2.598076211353316 0.0
63.0 3.6666666666666665 2.02072594216369 0.0
64.0 3.1666666666666665 0.5773502691896257 0.0
65.0 0.6666666666666666 3.1754264805429413 0.0
66.0 1.8333333333333335 2.309401076758503 0.0
67.0 0.16666666666666666 2.309401076758503 0.0
68.0 1.6666666666666665 3.1754264805429413 0.0
69.0 1.1666666666666667 2.309401076758503 0.0
70.0 1.3333333333333333 3.1754264805429413 0.0
71.0 0.8333333333333334 2.309401076758503 0.0
72.0 0.3333333333333333 3.1754264805429413 0.0
73.0 3.8333333333333335 2.309401076758503 0.0
74.0 2.3333333333333335 3.1754264805429413 0.0
75.0 2.8333333333333335 2.309401076758503 0.0
76.0 3.3333333333333335 3.1754264805429413 0.0
77.0 3.1666666666666665 2.309401076758503 0.0
78.0 2.1666666666666665 2.309401076758503 0.0
79.0 3.6666666666666665 3.1754264805429413 0.0
80.0 2.6666666666666665 3.1754264805429413 0.0
81.0 2.6666666666666665 3.7527767497325675 0.0
82.0 2.3333333333333335 3.7527767497325675 0.0
83.0 0.6666666666666666 3.7527767497325675 0.0
84.0 0.8333333333333334 2.8867513459481287 0.0
85.0 2.8333333333333335 2.8867513459481287 0.0
86.0 0.3333333333333333 3.7527767497325675 0.0
87.0 2.1666666666666665 2.8867513459481287 0.0
88.0 3.8333333333333335 2.8867513459481287 0.0
89.0 1.1666666666666667 2.8867513459481287 0.0
90.0 1.3333333333333333 3.7527767497325675 0.0
91.0 1.6666666666666665 3.7527767497325675 0.0
92.0 3.3333333333333335 3.7527767497325675 0.0
93.0 1.8333333333333335 2.8867513459481287 0.0
94.0 3.6666666666666665 3.7527767497325675 0.0
95.0 0.16666666666666666 2.8867513459481287 0.0
96.0 3.1666666666666665 2.8867513459481287 0.0
97.0 3.1666666666666665 3.4641016151377544 0.0
98.0 1.6666666666666665 4.330127018922193 0.0
99.0 1.8333333333333335 3.4641016151377544 0.0
100.0 2.1666666666666665 3.4641016151377544 0.0
101.0 2.3333333333333335 4.330127018922193 0.0
102.0 1.3333333333333333 4.330127018922193 0.0
103.0 3.8333333333333335 3.4641016151377544 0.0
104.0 2.8333333333333335 3.4641016151377544 0.0
105.0 3.3333333333333335 4.330127018922193 0.0
106.0 0.16666666666666666 3.4641016151377544 0.0
107.0 0.3333333333333333 4.330127018922193 0.0
108.0 0.6666666666666666 4.330127018922193 0.0
109.0 0.8333333333333334 3.4641016151377544 0.0
110.0 1.1666666666666667 3.4641016151377544 0.0
111.0 2.6666666666666665 4.330127018922193 0.0
112.0 3.6666666666666665 4.330127018922193 0.0
113.0 0.8333333333333334 4.04145188432738 0.0
114.0 1.1666666666666667 4.04145188432738 0.0
115.0 0.16666666666666666 4.04145188432738 0.0
116.0 2.8333333333333335 4.04145188432738 0.0
117.0 1.8333333333333335 4.04145188432738 0.0
118.0 3.1666666666666665 4.04145188432738 0.0
119.0 3.8333333333333335 4.04145188432738 0.0
120.0 2.1666666666666665 4.04145188432738 0.0
121.0 2.3333333333333335 -0.2886751345948131 0.0
122.0 1.6666666666666665 -0.2886751345948131 0.0
123.0 2.6666666666666665 -0.2886751345948131 0.0
124.0 1.3333333333333333 -0.2886751345948131 0.0
ITEM: TIMESTEP
4
ITEM: NUMBER OF ATOMS
112
ITEM: BOX BOUNDS pp pp pp
0.0 4.0
0.0 4.618802153517006
0.0 5.0
ITEM: ATOMS id x y z
1.0 0.3333333333333333 0.8660254037844386 0.0
2.0 0.6666666666666666 0.8660254037844386 0.0
3.0 0.6666666666666666 1.4433756729740643 0.0
4.0 1.6666666666666665 0.8660254037844386 0.0
5.0 1.3333333333333333 0.8660254037844386 0.0
6.0 0.3333333333333333 1.4433756729740643 0.0
7.0 0.8333333333333334 0.5773502691896257 0.0
8.0 1.8333333333333335 0.5773502691896257 0.0
9.0 1.3333333333333333 1.4433756729740643 0.0
10.0 1.1666666666666667 0.5773502691896257 0.0
11.0 0.16666666666666666 0.5773502691896257 0.0
12.0 1.6666666666666665 1.4433756729740643 0.0
13.0 2.6666666666666665 2.02072594216369 0.0
14.0 2.1666666666666665 0.5773502691896257 0.0
15.0 1.8333333333333335 1.1547005383792515 0.0
16.0 2.6666666666666665 0.8660254037844386 0.0
17.0 0.6666666666666666 2.02072594216369 0.0
18.0 1.6666666666666665 2.02072594216369 0.0
19.0 2.8333333333333335 0.5773502691896257 0.0
20.0 0.8333333333333334 1.1547005383792515 0.0
21.0 2.6666666666666665 1.4433756729740643 0.0
22.0 2.8333333333333335 1.1547005383792515 0.0
23.0 0.3333333333333333 2.02072594216369 0.0
24.0 2.1666666666666665 1.1547005383792515 0.0
25.0 1.3333333333333333 2.02072594216369 0.0
26.0 2.3333333333333335 1.4433756729740643 0.0
27.0 2.3333333333333335 2.02072594216369 0.0
28.0 2.3333333333333335 0.8660254037844386 0.0
29.0 0.16666666666666666 1.1547005383792515 0.0
30.0 1.1666666666666667 1.1547005383792515 0.0
31.0 2.6666666666666665 2.598076211353316 0.0
32.0 2.8333333333333335 1.7320508075688772 0.0
33.0 3.8333333333333335 0.5773502691896257 0.0
34.0 3.6666666666666665 1.4433756729740643 0.0
35.0 3.6666666666666665 0.8660254037844386 0.0
36.0 2.1666666666666665 1.7320508075688772 0.0
37.0 1.6666666666666665 2.598076211353316 0.0
38.0 0.6666666666666666 2.598076211353316 0.0
39.0 0.3333333333333333 2.598076211353316 0.0
40.0 3.1666666666666665 1.1547005383792515 0.0
41.0 1.3333333333333333 2.598076211353316 0.0
42.0 2.3333333333333335 2.598076211353316 0.0
43.0 0.16666666666666666 1.7320508075688772 0.0
44.0 3.3333333333333335 0.8660254037844386 0.0
45.0 3.8333333333333335 1.7320508075688772 0.0
46.0 1.1666666666666667 1.7320508075688772 0.0
47.0 3.3333333333333335 2.02072594216369 0.0
48.0 1.8333333333333335 1.7320508075688772 0.0
49.0 0.8333333333333334 1.7320508075688772 0.0
50.0 3.1666666666666665 1.7320508075688772 0.0
51.0 3.8333333333333335 1.1547005383792515 0.0
52.0 3.3333333333333335 1.4433756729740643 0.0
53.0 3.3333333333333335 2.598076211353316 0.0
54.0 3.6666666666666665 2.598076211353316 0.0
55.0 3.6666666666666665 2.02072594216369 0.0
56.0 3.1666666666666665 0.5773502691896257 0.0
57.0 0.6666666666666666 3.1754264805429413 0.0
58.0 1.8333333333333335 2.309401076758503 0.0
59.0 0.16666666666666666 2.309401076758503 0.0
60.0 1.6666666666666665 3.1754264805429413 0.0
61.0 1.1666666666666667 2.309401076758503 0.0
62.0 1.3333333333333333 3.1754264805429413 0.0
63.0 0.8333333333333334 2.309401076758503 0.0
64.0 0.3333333333333333 3.1754264805429413 0.0
65.0 3.8333333333333335 2.309401076758503 0.0
66.0 2.3333333333333335 3.1754264805429413 0.0
67.0 2.8333333333333335 2.309401076758503 0.0
68.0 3.3333333333333335 3.1754264805429413 0.0
69.0 3.1666666666666665 2.309401076758503 0.0
70.0 2.1666666666666665 2.309401076758503 0.0
71.0 3.6666666666666665 3.1754264805429413 0.0
72.0 2.6666666666666665 3.1754264805429413 0.0
73.0 2.6666666666666665 3.7527767497325675 0.0
74.0 2.3333333333333335 3.7527767497325675 0.0
75.0 0.6666666666666666 3.7527767497325675 0.0
76.0 0.8333333333333334 2.8867513459481287 0.0
77.0 2.8333333333333335 2.8867513459481287 0.0
78.0 0.3333333333333333 3.7527767497325675 0.0
79.0 2.1666666666666665 2.8867513459481287 0.0
80.0 3.8333333333333335 2.8867513459481287 0.0
81.0 1.1666666666666667 2.8867513459481287 0.0
82.0 1.3333333333333333 3.7527767497325675 0.0
83.0 1.6666666666666665 3.7527767497325675 0.0
84.0 3.3333333333333335 3.7527767497325675 0.0
85.0 1.8333333333333335 2.8867513459481287 0.0
86.0 3.6666666666666665 3.7527767497325675 0.0
87.0 0.16666666666666666 2.8867513459481287 0.0
88.0 3.1666666666666665 2.8867513459481287 0.0
89.0 3.1666666666666665 3.4641016151377544 0.0
90.0 1.6666666666666665 4.330127018922193 0.0
91.0 1.8333333333333335 3.4641016151377544 0.0
92.0 2.1666666666666665 3.4641016151377544 0.0
93.0 2.3333333333333335 4.330127018922193 0.0
94.0 1.3333333333333333 4.330127018922193 0.0
95.0 3.8333333333333335 3.4641016151377544 0.0
96.0 2.8333333333333335 3.4641016151377544 0.0
97.0 3.3333333333333335 4.330127018922193 0.0
98.0 0.16666666666666666 3.4641016151377544 0.0
99.0 0.3333333333333333 4.330127018922193 0.0
100.0 0.6666666666666666 4.330127018922193 0.0
101.0 0.8333333333333334 3.4641016151377544 0.0
102.0 1.1666666666666667 3.4641016151377544 0.0
103.0 2.6666666666666665 4.330127018922193 0.0
104.0 3.6666666666666665 4.330127018922193 0.0
105.0 0.8333333333333334 4.04145188432738 0.0
106.0 1.1666666666666667 4.04145188432738 0.0
107.0 0.16666666666666666 4.04145188432738 0.0
108.0 2.8333333333333335 4.04145188432738 0.0
109.0 1.8333333333333335 4.04145188432738 0.0
110.0 3.1666666666666665 4.04145188432738 0.0
111.0 3.8333333333333335 4.04145188432738 0.0
112.0 2.1666666666666665 4.04145188432738 0.0
ITEM: TIMESTEP
5
ITEM: NUMBER OF ATOMS
108
ITEM: BOX BOUNDS pp pp pp
0.0 4.0
0.0 4.618802153517006
0.0 5.0
ITEM: ATOMS id x y z
1.0 0.3333333333333333 0.8660254037844386 0.0