ITEM: TIMESTEP
0
ITEM: NUMBER OF ATOMS
54
ITEM: BOX BOUNDS pp pp pp
0.0 4.0
0.0 2.309401076758503
0.0 5.0
ITEM: ATOMS id x y z
1.0 0.3333333333333333 -0.28867513459481287 0.0
2.0 0.6666666666666666 -0.28867513459481287 0.0
3.0 0.16666666666666666 0.0 0.0
4.0 0.8333333333333334 0.0 0.0
5.0 3.1666666666666665 0.0 0.0
6.0 3.8333333333333335 0.0 0.0
7.0 3.3333333333333335 -0.28867513459481287 0.0
8.0 3.6666666666666665 -0.28867513459481287 0.0
9.0 0.6666666666666666 0.28867513459481287 0.0
10.0 2.6666666666666665 -0.8660254037844386 0.0
11.0 3.3333333333333335 0.28867513459481287 0.0
12.0 1.8333333333333335 0.5773502691896257 0.0
13.0 1.3333333333333333 0.8660254037844386 0.0
14.0 1.6666666666666665 0.8660254037844386 0.0
15.0 1.6666666666666665 -0.28867513459481287 0.0
16.0 3.1666666666666665 0.5773502691896257 0.0
17.0 2.1666666666666665 0.0 0.0
18.0 1.3333333333333333 0.28867513459481287 0.0
19.0 1.3333333333333333 -0.28867513459481287 0.0
20.0 2.3333333333333335 -0.8660254037844386 0.0
21.0 2.8333333333333335 0.0 0.0
22.0 1.1666666666666667 0.5773502691896257 0.0
23.0 2.1666666666666665 -0.5773502691896257 0.0
24.0 1.1666666666666667 -1.1547005383792515 0.0
25.0 1.1666666666666667 -0.5773502691896257 0.0
26.0 2.1666666666666665 -1.1547005383792515 0.0
27.0 2.3333333333333335 0.8660254037844386 0.0
28.0 0.8333333333333334 -0.5773502691896257 0.0
29.0 2.3333333333333335 0.28867513459481287 0.0
30.0 2.3333333333333335 -0.28867513459481287 0.0
31.0 1.8333333333333335 0.0 0.0
32.0 1.8333333333333335 -1.1547005383792515 0.0
33.0 1.8333333333333335 -0.5773502691896257 0.0
34.0 1.1666666666666667 0.0 0.0
35.0 0.3333333333333333 0.28867513459481287 0.0
36.0 3.6666666666666665 0.28867513459481287 0.0
37.0 2.8333333333333335 -0.5773502691896257 0.0
38.0 2.6666666666666665 0.28867513459481287 0.0
39.0 2.6666666666666665 -0.28867513459481287 0.0
40.0 3.1666666666666665 -0.5773502691896257 0.0
41.0 2.6666666666666665 0.8660254037844386 0.0
42.0 0.8333333333333334 0.5773502691896257 0.0
43.0 1.6666666666666665 0.28867513459481287 0.0
44.0 2.3333333333333335 1.4433756729740643 0.0
45.0 1.6666666666666665 -0.8660254037844386 0.0
46.0 2.1666666666666665 0.5773502691896257 0.0
47.0 1.6666666666666665 -1.4433756729740643 0.0
48.0 2.1666666666666665 1.1547005383792515 0.0
49.0 1.8333333333333335 1.1547005383792515 0.0
50.0 2.6666666666666665 1.4433756729740643 0.0
51.0 1.3333333333333333 -0.8660254037844386 0.0
52.0 2.8333333333333335 1.1547005383792515 0.0
53.0 2.8333333333333335 0.5773502691896257 0.0
54.0 1.3333333333333333 -1.4433756729740643 0.0
ITEM: TIMESTEP
1
ITEM: NUMBER OF ATOMS
42
ITEM: BOX BOUNDS pp pp pp
0.0 4.0
0.0 2.309401076758503
0.0 5.0
ITEM: ATOMS id x y z
1.0 0.3333333333333333 -0.28867513459481287 0.0
2.0 0.6666666666666666 -0.28867513459481287 0.0
3.0 0.16666666666666666 0.0 0.0
4.0 0.8333333333333334 0.0 0.0
5.0 3.1666666666666665 0.0 0.0
6.0 3.8333333333333335 0.0 0.0
7.0 3.3333333333333335 -0.28867513459481287 0.0
8.0 3.6666666666666665 -0.28867513459481287 0.0
9.0 0.6666666666666666 0.28867513459481287 0.0
10.0 2.6666666666666665 -0.8660254037844386 0.0
11.0 3.3333333333333335 0.28867513459481287 0.0
12.0 1.8333333333333335 0.5773502691896257 0.0
13.0 1.3333333333333333 0.8660254037844386 0.0
14.0 1.6666666666666665 0.8660254037844386 0.0
15.0 1.6666666666666665 -0.28867513459481287 0.0
16.0 2.1666666666666665 0.0 0.0
17.0 1.3333333333333333 0.28867513459481287 0.0
18.0 1.3333333333333333 -0.28867513459481287 0.0
19.0 2.3333333333333335 -0.8660254037844386 0.0
20.0 2.8333333333333335 0.0 0.0
21.0 1.1666666666666667 0.5773502691896257 0.0
22.0 2.1666666666666665 -0.5773502691896257 0.0
23.0 2.1666666666666665 -1.1547005383792515 0.0
24.0 2.3333333333333335 0.8660254037844386 0.0
25.0 2.3333333333333335 0.28867513459481287 0.0
26.0 2.3333333333333335 -0.28867513459481287 0.0
27.0 1.8333333333333335 0.0 0.0
28.0 1.8333333333333335 -1.1547005383792515 0.0
29.0 1.8333333333333335 -0.5773502691896257 0.0
30.0 1.1666666666666667 0.0 0.0
31.0 0.3333333333333333 0.28867513459481287 0.0
32.0 3.6666666666666665 0.28867513459481287 0.0
33.0 2.8333333333333335 -0.5773502691896257 0.0
34.0 2.6666666666666665 0.28867513459481287 0.0
35.0 2.6666666666666665 -0.28867513459481287 0.0
36.0 3.1666666666666665 -0.5773502691896257 0.0
37.0 0.8333333333333334 0.5773502691896257 0.0
38.0 1.6666666666666665 0.28867513459481287 0.0
39.0 1.6666666666666665 -0.8660254037844386 0.0
40.0 2.1666666666666665 0.5773502691896257 0.0
41.0 2.1666666666666665 1.1547005383792515 0.0
42.0 1.8333333333333335 1.1547005383792515 0.0
ITEM: TIMESTEP
2
ITEM: NUMBER OF ATOMS
28
ITEM: BOX BOUNDS pp pp pp
0.0 4.0
0.0 2.309401076758503
0.0 5.0
ITEM: ATOMS id x y z
1.0 0.3333333333333333 -0.28867513459481287 0.0
2.0 0.6666666666666666 -0.28867513459481287 0.0
3.0 0.16666666666666666 0.0 0.0
4.0 0.8333333333333334 0.0 0.0
5.0 3.1666666666666665 0.0 0.0
6.0 3.8333333333333335 0.0 0.0
7.0 3.3333333333333335 -0.28867513459481287 0.0
8.0 3.6666666666666665 -0.28867513459481287 0.0
9.0 0.6666666666666666 0.28867513459481287 0.0
10.0 3.3333333333333335 0.28867513459481287 0.0
11.0 1.8333333333333335 0.5773502691896257 0.0
12.0 1.6666666666666665 -0.28867513459481287 0.0
13.0 2.1666666666666665 0.0 0.0
14.0 1.3333333333333333 0.28867513459481287 0.0
15.0 1.3333333333333333 -0.28867513459481287 0.0
16.0 2.8333333333333335 0.0 0.0
17.0 2.1666666666666665 -0.5773502691896257 0.0
18.0 2.3333333333333335 0.28867513459481287 0.0
19.0 2.3333333333333335 -0.28867513459481287 0.0
20.0 1.8333333333333335 0.0 0.0
21.0 1.8333333333333335 -0.5773502691896257 0.0
22.0 1.1666666666666667 0.0 0.0
23.0 0.3333333333333333 0.28867513459481287 0.0
24.0 3.6666666666666665 0.28867513459481287 0.0
25.0 2.6666666666666665 0.28867513459481287 0.0
26.0 2.6666666666666665 -0.28867513459481287 0.0
27.0 1.6666666666666665 0.28867513459481287 0.0
28.0 2.1666666666666665 0.5773502691896257 0.0
ITEM: TIMESTEP
3
ITEM: NUMBER OF ATOMS
52
ITEM: BOX BOUNDS pp pp pp
0.0 4.0
0.0 2.309401076758503
0.0 5.0
ITEM: ATOMS id x y z
1.0 0.16666666666666666 -1.1547005383792515 0.0
2.0 0.3333333333333333 -0.28867513459481287 0.0
3.0 0.6666666666666666 -0.28867513459481287 0.0
4.0 0.8333333333333334 -1.1547005383792515 0.0
5.0 0.16666666666666666 0.0 0.0
6.0 0.8333333333333334 0.0 0.0
7.0 3.1666666666666665 0.0 0.0
8.0 3.3333333333333335 0.8660254037844386 0.0
9.0 3.6666666666666665 0.8660254037844386 0.0
10.0 3.8333333333333335 0.0 0.0
11.0 3.3333333333333335 -0.28867513459481287 0.0
12.0 3.6666666666666665 -0.28867513459481287 0.0
13.0 0.6666666666666666 0.28867513459481287 0.0
14.0 3.3333333333333335 0.28867513459481287 0.0
15.0 1.8333333333333335 0.5773502691896257 0.0
16.0 1.6666666666666665 -0.28867513459481287 0.0
17.0 3.1666666666666665 0.5773502691896257 0.0
18.0 2.1666666666666665 0.0 0.0
19.0 1.3333333333333333 0.28867513459481287 0.0
20.0 1.3333333333333333 -0.28867513459481287 0.0
21.0 2.8333333333333335 0.0 0.0
22.0 3.8333333333333335 0.5773502691896257 0.0
23.0 2.1666666666666665 -0.5773502691896257 0.0
24.0 1.1666666666666667 -1.1547005383792515 0.0
25.0 1.1666666666666667 -0.5773502691896257 0.0
26.0 2.3333333333333335 0.8660254037844386 0.0
27.0 0.8333333333333334 -0.5773502691896257 0.0
28.0 2.3333333333333335 0.28867513459481287 0.0
29.0 2.3333333333333335 -0.28867513459481287 0.0
30.0 1.8333333333333335 0.0 0.0
31.0 0.6666666666666666 -0.8660254037844386 0.0
32.0 1.8333333333333335 -0.5773502691896257 0.0
33.0 1.1666666666666667 0.0 0.0
34.0 0.3333333333333333 0.28867513459481287 0.0
35.0 3.6666666666666665 0.28867513459481287 0.0
36.0 2.6666666666666665 0.28867513459481287 0.0
37.0 2.6666666666666665 -0.28867513459481287 0.0
38.0 0.3333333333333333 -0.8660254037844386 0.0
39.0 3.3333333333333335 1.4433756729740643 0.0
40.0 2.6666666666666665 0.8660254037844386 0.0
41.0 3.6666666666666665 1.4433756729740643 0.0
42.0 1.6666666666666665 0.28867513459481287 0.0
43.0 0.16666666666666666 -0.5773502691896257 0.0
44.0 1.6666666666666665 -0.8660254037844386 0.0
45.0 2.1666666666666665 0.5773502691896257 0.0
46.0 3.1666666666666665 1.1547005383792515 0.0
47.0 1.3333333333333333 -0.8660254037844386 0.0
48.0 2.8333333333333335 1.1547005383792515 0.0
49.0 3.8333333333333335 1.1547005383792515 0.0
50.0 0.3333333333333333 -1.4433756729740643 0.0
51.0 2.8333333333333335 0.5773502691896257 0.0
52.0 0.6666666666666666 -1.4433756729740643 0.0
